<UPF version="2.0.1">
  <PP_INFO>
    Generated using "atomic" code by A. Dal Corso  v.5.1.1
    Author: FTSG
    Generation date: 20Jun2016
    Pseudopotential type: NC
    Element: Nh
    Functional: PBE

    Suggested minimum cutoff for wavefunctions:   0. Ry
    Suggested minimum cutoff for charge density:   0. Ry
    The Pseudo was generated with a Fully-Relativistic Calculation
    L component and cutoff radius for Local Potential:  0   2.0000
    Pseudopotential contains additional information for spin-orbit calculations.

    Valence configuration: 
    nl pn  l   occ       Rcut    Rcut US       E pseu
    7P  2  1  1.00      2.200      2.200    -0.281261
    7P  2  1  0.00      2.200      2.200    -0.077205
    6D  3  2  4.00      2.200      2.200    -0.990014
    6D  3  2  6.00      2.200      2.200    -0.718676
    7S  1  0  2.00      2.182      2.182    -0.845434
    Generation configuration:
    7P  2  1  1.00      2.200      2.200    -0.281266
    7P  2  1  0.00      2.200      2.200    -0.077206
    6D  3  2  4.00      2.200      2.200    -0.990014
    6D  3  2  6.00      2.200      2.200    -0.718671
    7S  1  0  2.00      2.000      2.000    -0.845429

    Pseudization used: troullier-martins
<PP_INPUTFILE>
 &input
    title='Nh'
    zed=113.
    rel=2,
    config='[Rn] 5f14 6d10.0 7s2.0 7p1.0 '
    iswitch=3,
    dft='PBE'
    verbosity = 'high'
 /
 &inputp
   lloc=0,
   pseudotype=2,
   file_pseudopw='Nh.pbe.UPF',
   author='FTSG',
   tm = .true.
   nlcc = .true.
 /
5
7P  2  1  1.00  0.00  2.2  2.2  0.50
7P  2  1  0.00  0.00  2.2  2.2  1.50
6D  3  2  4.00  0.00  2.20 2.20  1.50
6D  3  2  6.00  0.00  2.20 2.20  2.50
7S  1  0  2.00  0.00  2.00  2.00  0.50
</PP_INPUTFILE>
  </PP_INFO>
  <!--                               -->
  <!-- END OF HUMAN READABLE SECTION -->
  <!--                               -->
  <PP_HEADER generated='Generated using "atomic" code by A. Dal Corso  v.5.1.1'
             author="FTSG"
             date="20Jun2016"
             comment=""
             element="Nh"
             pseudo_type="NC"
             relativistic="full"
             is_ultrasoft="F"
             is_paw="F"
             is_coulomb="F"
             has_so="T"
             has_wfc="F"
             has_gipaw="F"
             paw_as_gipaw="F"
             core_correction="T"
             functional="PBE"
             z_valence="1.300000000000000E+001"
             total_psenergy="-1.213958980021075E+002"
             wfc_cutoff="0.000000000000000E+000"
             rho_cutoff="0.000000000000000E+000"
             l_max="2"
             l_max_rho="4"
             l_local="0"
             mesh_size="1307"
             number_of_wfc="5"
             number_of_proj="4"/>
  <PP_MESH dx="1.250000000000000E-002" mesh="1307" xmin="-7.000000000000000E+000" rmax="1.000000000000000E+002"
zmesh="1.130000000000000E+002">
    <PP_R type="real" size="1307" columns="4">
 8.069751907562091E-006  8.171256890876303E-006  8.274038649704267E-006  8.378113243904902E-006 
 8.483496935345309E-006  8.590206190441671E-006  8.698257682732200E-006  8.807668295482402E-006 
 8.918455124323101E-006  9.030635479921723E-006  9.144226890687053E-006  9.259247105508128E-006 
 9.375714096527523E-006  9.493646061949529E-006  9.613061428883697E-006  9.733978856224054E-006 
 9.856417237564631E-006  9.980395704151613E-006  1.010593362787263E-005  1.023305062428370E-005 
 1.036176655567411E-005  1.049210153417003E-005  1.062407592487700E-005  1.075771034906208E-005 
 1.089302568737594E-005  1.103004308311548E-005  1.116878394552756E-005  1.130926995315420E-005 
 1.145152305721989E-005  1.159556548506159E-005  1.174141974360169E-005  1.188910862286484E-005 
 1.203865519953888E-005  1.219008284058068E-005  1.234341520686725E-005  1.249867625689276E-005 
 1.265589025051216E-005  1.281508175273182E-005  1.297627563754781E-005  1.313949709183263E-005 
 1.330477161927055E-005  1.347212504434276E-005  1.364158351636239E-005  1.381317351356046E-005 
 1.398692184722316E-005  1.416285566588110E-005  1.434100245955139E-005  1.452139006403297E-005 
 1.470404666525605E-005  1.488900080368620E-005  1.507628137878384E-005  1.526591765351984E-005 
 1.545793925894796E-005  1.565237619883470E-005  1.584925885434752E-005  1.604861798880191E-005 
 1.625048475246821E-005  1.645489068743895E-005  1.666186773255732E-005  1.687144822840776E-005 
 1.708366492236911E-005  1.729855097373157E-005  1.751613995887785E-005  1.773646587652955E-005 
 1.795956315305959E-005  1.818546664787132E-005  1.841421165884539E-005  1.864583392785517E-005 
 1.888036964635140E-005  1.911785546101730E-005  1.935832847949456E-005  1.960182627618156E-005 
 1.984838689810445E-005  2.009804887086201E-005  2.035085120464545E-005  2.060683340033375E-005 
 2.086603545566578E-005  2.112849787149003E-005  2.139426165809295E-005  2.166336834160693E-005 
 2.193585997049875E-005  2.221177912213981E-005  2.249116890945892E-005  2.277407298767876E-005 
 2.306053556113715E-005  2.335060139019400E-005  2.364431579822523E-005  2.394172467870466E-005 
 2.424287450237494E-005  2.454781232450875E-005  2.485658579226118E-005  2.516924315211476E-005 
 2.548583325741808E-005  2.580640557601918E-005  2.613101019799510E-005  2.645969784347841E-005 
 2.679251987058244E-005  2.712952828342605E-005  2.747077574025937E-005  2.781631556169186E-005 
 2.816620173902360E-005  2.852048894268165E-005  2.887923253076238E-005  2.924248855768125E-005 
 2.961031378293161E-005  2.998276567995320E-005  3.035990244511270E-005  3.074178300679694E-005 
 3.112846703462060E-005  3.152001494874982E-005  3.191648792934275E-005  3.231794792610923E-005 
 3.272445766799055E-005  3.313608067296089E-005  3.355288125795228E-005  3.397492454890410E-005 
 3.440227649093921E-005  3.483500385866799E-005  3.527317426662204E-005  3.571685617981910E-005 
 3.616611892446077E-005  3.662103269876493E-005  3.708166858393433E-005  3.754809855526319E-005 
 3.802039549338354E-005  3.849863319565282E-005  3.898288638768501E-005  3.947323073502656E-005 
 3.996974285497934E-005  4.047250032857233E-005  4.098158171268359E-005  4.149706655231514E-005 
 4.201903539302193E-005  4.254756979349722E-005  4.308275233831649E-005  4.362466665084117E-005 
 4.417339740628510E-005  4.472903034494526E-005  4.529165228559869E-005  4.586135113906836E-005 
 4.643821592195916E-005  4.702233677056704E-005  4.761380495496302E-005  4.821271289325420E-005 
 4.881915416602453E-005  4.943322353095664E-005  5.005501693763812E-005  5.068463154255385E-005 
 5.132216572426674E-005  5.196771909878984E-005  5.262139253515128E-005  5.328328817115539E-005 
 5.395350942934193E-005  5.463216103314603E-005  5.531934902326160E-005  5.601518077421015E-005 
 5.671976501111844E-005  5.743321182670696E-005  5.815563269849215E-005  5.888714050620507E-005 
 5.962784954942891E-005  6.037787556545864E-005  6.113733574738524E-005  6.190634876240718E-005 
 6.268503477037279E-005  6.347351544255486E-005  6.427191398066275E-005  6.508035513609236E-005 
 6.589896522941892E-005  6.672787217013519E-005  6.756720547663683E-005  6.841709629646080E-005 
 6.927767742677675E-005  7.014908333513711E-005  7.103145018048815E-005  7.192491583444434E-005 
 7.282961990283213E-005  7.374570374750273E-005  7.467331050842062E-005  7.561258512602961E-005 
 7.656367436389942E-005  7.752672683165865E-005  7.850189300821467E-005  7.948932526526651E-005 
 8.048917789111348E-005  8.150160711476230E-005  8.252677113033918E-005  8.356483012180718E-005 
 8.461594628799561E-005  8.568028386794419E-005  8.675800916656484E-005  8.784929058062843E-005 
 8.895429862507598E-005  9.007320595966255E-005  9.120618741593583E-005  9.235342002455313E-005 
 9.351508304294385E-005  9.469135798331795E-005  9.588242864102789E-005  9.708848112328751E-005 
 9.830970387825050E-005  9.954628772445721E-005  1.007984258806494E-004  1.020663139959613E-004 
 1.033501501804907E-004  1.046501350362533E-004  1.059664716885276E-004  1.072993658175938E-004 
 1.086490256908711E-004  1.100156621954610E-004  1.113994888710973E-004  1.128007219435139E-004 
 1.142195803582290E-004  1.156562858147565E-004  1.171110628012473E-004  1.185841386295648E-004 
 1.200757434708047E-004  1.215861103912579E-004  1.231154753888285E-004  1.246640774299092E-004 
 1.262321584867191E-004  1.278199635751140E-004  1.294277407928692E-004  1.310557413584460E-004 
 1.327042196502453E-004  1.343734332463535E-004  1.360636429647914E-004  1.377751129042663E-004 
 1.395081104854379E-004  1.412629064927046E-004  1.430397751165122E-004  1.448389939961985E-004 
 1.466608442633739E-004  1.485056105858492E-004  1.503735812121158E-004  1.522650480163839E-004 
 1.541803065441904E-004  1.561196560585767E-004  1.580833995868499E-004  1.600718439679320E-004 
 1.620852999003025E-004  1.641240819905477E-004  1.661885088025169E-004  1.682789029070996E-004 
 1.703955909326277E-004  1.725389036159114E-004  1.747091758539184E-004  1.769067467561012E-004 
 1.791319596973840E-004  1.813851623718164E-004  1.836667068469004E-004  1.859769496186020E-004 
 1.883162516670547E-004  1.906849785129626E-004  1.930835002747148E-004  1.955121917262163E-004 
 1.979714323554478E-004  2.004616064237608E-004  2.029831030259197E-004  2.055363161508989E-004 
 2.081216447434434E-004  2.107394927664060E-004  2.133902692638662E-004  2.160743884250446E-004 
 2.187922696490212E-004  2.215443376102668E-004  2.243310223249995E-004  2.271527592183755E-004 
 2.300099891925252E-004  2.329031586954453E-004  2.358327197907565E-004  2.387991302283406E-004 
 2.418028535158635E-004  2.448443589911998E-004  2.479241218957683E-004  2.510426234487885E-004 
 2.542003509224729E-004  2.573977977181635E-004  2.606354634434274E-004  2.639138539901214E-004 
 2.672334816134381E-004  2.705948650119477E-004  2.739985294086451E-004  2.774450066330167E-004 
 2.809348352041412E-004  2.844685604148324E-004  2.880467344168445E-004  2.916699163071448E-004 
 2.953386722152751E-004  2.990535753918102E-004  3.028152062979295E-004  3.066241526961153E-004 
 3.104810097419915E-004  3.143863800773182E-004  3.183408739241564E-004  3.223451091802145E-004 
 3.263997115153984E-004  3.305053144695719E-004  3.346625595515494E-004  3.388720963393333E-004 
 3.431345825816107E-004  3.474506843005293E-004  3.518210758957639E-004  3.562464402498925E-004 
 3.607274688350994E-004  3.652648618212172E-004  3.698593281851320E-004  3.745115858215603E-004 
 3.792223616552229E-004  3.839923917544281E-004  3.888224214460834E-004  3.937132054321551E-004 
 3.986655079075913E-004  4.036801026797293E-004  4.087577732892046E-004  4.138993131323803E-004 
 4.191055255853180E-004  4.243772241293051E-004  4.297152324779643E-004  4.351203847059609E-004 
 4.405935253793269E-004  4.461355096874281E-004  4.517472035765877E-004  4.574294838853930E-004 
 4.631832384817025E-004  4.690093664013787E-004  4.749087779887622E-004  4.808823950389159E-004 
 4.869311509416571E-004  4.930559908274017E-004  4.992578717148438E-004  5.055377626604894E-004 
 5.118966449100751E-004  5.183355120518899E-004  5.248553701720241E-004  5.314572380115747E-004 
 5.381421471258227E-004  5.449111420454180E-004  5.517652804395882E-004  5.587056332814015E-004 
 5.657332850151112E-004  5.728493337255978E-004  5.800548913099501E-004  5.873510836512004E-004 
 5.947390507942456E-004  6.022199471239840E-004  6.097949415456866E-004  6.174652176676430E-004 
 6.252319739861029E-004  6.330964240725417E-004  6.410597967632872E-004  6.491233363515233E-004 
 6.572883027817159E-004  6.655559718464817E-004  6.739276353859321E-004  6.824046014895285E-004 
 6.909881947004705E-004  6.996797562226609E-004  7.084806441302707E-004  7.173922335799401E-004 
 7.264159170256531E-004  7.355531044363059E-004  7.448052235160213E-004  7.541737199272290E-004 
 7.636600575165530E-004  7.732657185435432E-004  7.829922039122771E-004  7.928410334058824E-004 
 8.028137459240049E-004  8.129118997232646E-004  8.231370726607389E-004  8.334908624405017E-004 
 8.439748868632712E-004  8.545907840791935E-004  8.653402128438058E-004  8.762248527772239E-004 
 8.872464046265819E-004  8.984065905317795E-004  9.097071542945702E-004  9.211498616510322E-004 
 9.327365005474719E-004  9.444688814197894E-004  9.563488374763656E-004  9.683782249845043E-004 
 9.805589235604775E-004  9.928928364632188E-004  1.005381890891715E-003  1.018028038286128E-003 
 1.030833254632717E-003  1.043799540772589E-003  1.056928922714333E-003  1.070223451950590E-003 
 1.083685205778601E-003  1.097316287624790E-003  1.111118827373427E-003  1.125094981699430E-003 
 1.139246934405347E-003  1.153576896762581E-003  1.168087107856905E-003  1.182779834938323E-003 
 1.197657373775334E-003  1.212722049013650E-003  1.227976214539427E-003  1.243422253847063E-003 
 1.259062580411625E-003  1.274899638065958E-003  1.290935901382543E-003  1.307173876060149E-003 
 1.323616099315355E-003  1.340265140278997E-003  1.357123600397597E-003  1.374194113839850E-003 
 1.391479347908209E-003  1.408982003455667E-003  1.426704815307760E-003  1.444650552689897E-003 
 1.462822019660058E-003  1.481222055546925E-003  1.499853535393542E-003  1.518719370406539E-003 
 1.537822508411019E-003  1.557165934311164E-003  1.576752670556624E-003  1.596585777614786E-003 
 1.616668354448980E-003  1.637003539002693E-003  1.657594508689885E-003  1.678444480891463E-003 
 1.699556713458002E-003  1.720934505218793E-003  1.742581196497293E-003  1.764500169633055E-003 
 1.786694849510225E-003  1.809168704092691E-003  1.831925244965954E-003  1.854968027885821E-003 
 1.878300653334010E-003  1.901926767080714E-003  1.925850060754274E-003  1.950074272418000E-003 
 1.974603187154246E-003  1.999440637655849E-003  2.024590504824978E-003  2.050056718379548E-003 
 2.075843257467237E-003  2.101954151287240E-003  2.128393479719843E-003  2.155165373963901E-003 
 2.182274017182359E-003  2.209723645155873E-003  2.237518546944659E-003  2.265663065558673E-003 
 2.294161598636209E-003  2.323018599131039E-003  2.352238576008202E-003  2.381826094948530E-003 
 2.411785779062059E-003  2.442122309610383E-003  2.472840426738119E-003  2.503944930213567E-003 
 2.535440680178673E-003  2.567332597908455E-003  2.599625666579937E-003  2.632324932050803E-003 
 2.665435503647808E-003  2.698962554965126E-003  2.732911324672742E-003  2.767287117334990E-003 
 2.802095304239411E-003  2.837341324236025E-003  2.873030684587166E-003  2.909168961828002E-003 
 2.945761802637873E-003  2.982814924722606E-003  3.020334117707911E-003  3.058325244044022E-003 
 3.096794239921730E-003  3.135747116199901E-003  3.175189959344706E-003  3.215128932380633E-003 
 3.255570275853472E-003  3.296520308805425E-003  3.337985429762452E-003  3.379972117734063E-003 
 3.422486933225677E-003  3.465536519263708E-003  3.509127602433566E-003  3.553266993930679E-003 
 3.597961590624773E-003  3.643218376137511E-003  3.689044421933703E-003  3.735446888426244E-003 
 3.782433026094927E-003  3.830010176619358E-003  3.878185774026102E-003  3.926967345850264E-003 
 3.976362514311696E-003  4.026378997505962E-003  4.077024610610320E-003  4.128307267104856E-003 
 4.180234980008980E-003  4.232815863133488E-003  4.286058132348342E-003  4.339970106866428E-003 
 4.394560210543450E-003  4.449836973194167E-003  4.505809031925215E-003  4.562485132484640E-003 
 4.619874130628463E-003  4.677984993504404E-003  4.736826801053012E-003  4.796408747426435E-003 
 4.856740142425015E-003  4.917830412951961E-003  4.979689104486338E-003  5.042325882574540E-003 
 5.105750534340591E-003  5.169972970015363E-003  5.235003224485092E-003  5.300851458859343E-003 
 5.367527962058703E-003  5.435043152422460E-003  5.503407579336463E-003  5.572631924881508E-003 
 5.642727005502422E-003  5.713703773698160E-003  5.785573319733163E-003  5.858346873370214E-003 
 5.932035805625130E-003  6.006651630543494E-003  6.082206006999755E-003  6.158710740518956E-003 
 6.236177785121360E-003  6.314619245190291E-003  6.394047377363475E-003  6.474474592448157E-003 
 6.555913457360336E-003  6.638376697088337E-003  6.721877196681141E-003  6.806428003261691E-003 
 6.892042328065530E-003  6.978733548505104E-003  7.066515210259976E-003  7.155401029393388E-003 
 7.245404894495420E-003  7.336540868853100E-003  7.428823192647854E-003  7.522266285180518E-003 
 7.616884747124409E-003  7.712693362806712E-003  7.809707102518544E-003  7.907941124854122E-003 
 8.007410779079290E-003  8.108131607529896E-003  8.210119348040296E-003  8.313389936402441E-003 
 8.417959508855877E-003  8.523844404609045E-003  8.631061168392328E-003  8.739626553043205E-003 
 8.849557522123894E-003  8.960871252571988E-003  9.073585137384330E-003  9.187716788334740E-003 
 9.303284038725884E-003  9.420304946175746E-003  9.538797795439220E-003  9.658781101265062E-003 
 9.780273611288921E-003  9.903294308962666E-003  1.002786241652059E-002  1.015399739798294E-002 
 1.028171896219720E-002  1.041104706591762E-002  1.054200191692353E-002  1.067460397717682E-002 
 1.080887396601920E-002  1.094483286340960E-002  1.108250191320235E-002  1.122190262646655E-002 
 1.136305678484727E-002  1.150598644396895E-002  1.165071393688161E-002  1.179726187755047E-002 
 1.194565316438942E-002  1.209591098383891E-002  1.224805881398895E-002  1.240212042824756E-002 
 1.255811989905538E-002  1.271608160164713E-002  1.287603021786019E-002  1.303799073999129E-002 
 1.320198847470151E-002  1.336804904697056E-002  1.353619840410071E-002  1.370646281977109E-002 
 1.387886889814309E-002  1.405344357801720E-002  1.423021413704233E-002  1.440920819597797E-002 
 1.459045372300998E-002  1.477397903812074E-002  1.495981281751409E-002  1.514798409809615E-002 
 1.533852228201236E-002  1.553145714124158E-002  1.572681882224813E-002  1.592463785069212E-002 
 1.612494513619920E-002  1.632777197719027E-002  1.653315006577188E-002  1.674111149268823E-002 
 1.695168875233537E-002  1.716491474783854E-002  1.738082279619335E-002  1.759944663347161E-002 
 1.782082042009272E-002  1.804497874616120E-002  1.827195663687157E-002  1.850178955798103E-002 
 1.873451342135110E-002  1.897016459055893E-002  1.920877988657914E-002  1.945039659353720E-002 
 1.969505246453513E-002  1.994278572755052E-002  2.019363509140977E-002  2.044763975183633E-002 
 2.070483939757515E-002  2.096527421659417E-002  2.122898490236370E-002  2.149601266021494E-002 
 2.176639921377832E-002  2.204018681150294E-002  2.231741823325796E-002  2.259813679701705E-002 
 2.288238636562696E-002  2.317021135366108E-002  2.346165673435936E-002  2.375676804665551E-002 
 2.405559140229243E-002  2.435817349302750E-002  2.466456159792789E-002  2.497480359075840E-002 
 2.528894794746164E-002  2.560704375373240E-002  2.592914071268766E-002  2.625528915263246E-002 
 2.658554003492418E-002  2.691994496193510E-002  2.725855618511532E-002  2.760142661315748E-002 
 2.794860982026344E-002  2.830016005451570E-002  2.865613224635366E-002  2.901658201715640E-002 
 2.938156568793408E-002  2.975114028812770E-002  3.012536356452051E-002  3.050429399026086E-002 
 3.088799077399859E-002  3.127651386913693E-002  3.166992398319983E-002  3.206828258731806E-002 
 3.247165192583404E-002  3.288009502602747E-002  3.329367570796384E-002  3.371245859446604E-002 
 3.413650912121215E-002  3.456589354695978E-002  3.500067896389891E-002  3.544093330813566E-002 
 3.588672537030687E-002  3.633812480632930E-002  3.679520214828328E-002  3.725802881543328E-002 
 3.772667712538780E-002  3.820122030539862E-002  3.868173250380316E-002  3.916828880161007E-002 
 3.966096522423066E-002  4.015983875335848E-002  4.066498733899725E-002  4.117648991164131E-002 
 4.169442639460836E-002  4.221887771652746E-002  4.274992582398481E-002  4.328765369432749E-002 
 4.383214534862932E-002  4.438348586481914E-002  4.494176139097417E-002  4.550705915878134E-002 
 4.607946749716682E-002  4.665907584609814E-002  4.724597477055911E-002  4.784025597470059E-002 
 4.844201231616996E-002  4.905133782061968E-002  4.966832769639960E-002  5.029307834943317E-002 
 5.092568739828080E-002  5.156625368939362E-002  5.221487731255768E-002  5.287165961653382E-002 
 5.353670322489337E-002  5.421011205205298E-002  5.489199131951214E-002  5.558244757229350E-002 
 5.628158869559141E-002  5.698952393162889E-002  5.770636389672666E-002  5.843222059858792E-002 
 5.916720745379887E-002  5.991143930555109E-002  6.066503244158569E-002  6.142810461236314E-002 
 6.220077504946284E-002  6.298316448421236E-002  6.377539516655278E-002  6.457759088414015E-002 
 6.538987698168718E-002  6.621238038054943E-002  6.704522959855619E-002  6.788855477009229E-002 
 6.874248766643166E-002  6.960716171632647E-002  7.048271202685646E-002  7.136927540453872E-002 
 7.226699037670484E-002  7.317599721314579E-002  7.409643794802889E-002  7.502845640209187E-002 
 7.597219820511412E-002  7.692781081867257E-002  7.789544355918242E-002  7.887524762122776E-002 
 7.986737610118699E-002  8.087198402115334E-002  8.188922835315832E-002  8.291926804369855E-002 
 8.396226403857103E-002  8.501837930802222E-002  8.608777887221139E-002  8.717062982699629E-002 
 8.826710137004183E-002  8.937736482725711E-002  9.050159367956646E-002  9.163996359001500E-002 
 9.279265243121744E-002  9.395984031315054E-002  9.514170961129517E-002  9.633844499513405E-002 
 9.755023345700535E-002  9.877726434132181E-002  1.000197293741557E-001  1.012778226931958E-001 
 1.025517408780832E-001  1.038416829811258E-001  1.051478505584017E-001  1.064704477012526E-001 
 1.078096810681723E-001  1.091657599170997E-001  1.105388961381134E-001  1.119293042865418E-001 
 1.133372016164871E-001  1.147628081147711E-001  1.162063465353100E-001  1.176680424339185E-001 
 1.191481242035549E-001  1.206468231100068E-001  1.221643733280274E-001  1.237010119779261E-001 
 1.252569791626178E-001  1.268325180051411E-001  1.284278746866453E-001  1.300432984848579E-001 
 1.316790418130341E-001  1.333353602593964E-001  1.350125126270724E-001  1.367107609745312E-001 
 1.384303706565325E-001  1.401716103655879E-001  1.419347521739440E-001  1.437200715760961E-001 
 1.455278475318324E-001  1.473583625098243E-001  1.492119025317615E-001  1.510887572170430E-001 
 1.529892198280324E-001  1.549135873158787E-001  1.568621603669172E-001  1.588352434496518E-001 
 1.608331448623280E-001  1.628561767811068E-001  1.649046553088409E-001  1.669789005244680E-001 
 1.690792365330236E-001  1.712059915162816E-001  1.733594977840356E-001  1.755400918260206E-001 
 1.777481143644926E-001  1.799839104074657E-001  1.822478293026198E-001  1.845402247918888E-001 
 1.868614550667312E-001  1.892118828241004E-001  1.915918753231157E-001  1.940018044424467E-001 
 1.964420467384218E-001  1.989129835038639E-001  2.014150008276702E-001  2.039484896551381E-001 
 2.065138458490506E-001  2.091114702515332E-001  2.117417687466828E-001  2.144051523239910E-001 
 2.171020371425608E-001  2.198328445961314E-001  2.225980013789239E-001  2.253979395523106E-001 
 2.282330966123280E-001  2.311039155580353E-001  2.340108449607328E-001  2.369543390340545E-001 
 2.399348577049372E-001  2.429528666854876E-001  2.460088375457495E-001  2.491032477873863E-001 
 2.522365809182949E-001  2.554093265281507E-001  2.586219803649110E-001  2.618750444122742E-001 
 2.651690269681153E-001  2.685044427239112E-001  2.718818128451587E-001  2.753016650528112E-001 
 2.787645337057342E-001  2.822709598841991E-001  2.858214914744312E-001  2.894166832542139E-001 
 2.930570969795780E-001  2.967433014725749E-001  3.004758727101554E-001  3.042553939141702E-001 
 3.080824556424960E-001  3.119576558813145E-001  3.158816001385479E-001  3.198549015384685E-001 
 3.238781809175048E-001  3.279520669212442E-001  3.320771961026637E-001  3.362542130215912E-001 
 3.404837703454172E-001  3.447665289510798E-001  3.491031580283235E-001  3.534943351842649E-001 
 3.579407465492693E-001  3.624430868841576E-001  3.670020596887683E-001  3.716183773118762E-001 
 3.762927610625025E-001  3.810259413226191E-001  3.858186576612700E-001  3.906716589501353E-001 
 3.955857034805386E-001  4.005615590819360E-001  4.056000032418895E-001  4.107018232275484E-001 
 4.158678162086668E-001  4.210987893821567E-001  4.263955600982196E-001  4.317589559880572E-001 
 4.371898150931875E-001  4.426889859963966E-001  4.482573279543245E-001  4.538957110317319E-001 
 4.596050162374468E-001  4.653861356620217E-001  4.712399726171300E-001  4.771674417767041E-001 
 4.831694693198605E-001  4.892469930756149E-001  4.954009626694173E-001  5.016323396715386E-001 
 5.079420977473118E-001  5.143312228092742E-001  5.208007131712165E-001  5.273515797041680E-001 
 5.339848459943545E-001  5.407015485031272E-001  5.475027367289194E-001  5.543894733712293E-001 
 5.613628344966668E-001  5.684239097070969E-001  5.755738023098851E-001  5.828136294902982E-001 
 5.901445224860639E-001  5.975676267641252E-001  6.050841021996303E-001  6.126951232571561E-001 
 6.204018791742288E-001  6.282055741471410E-001  6.361074275191069E-001  6.441086739707942E-001 
 6.522105637132376E-001  6.604143626831939E-001  6.687213527409441E-001  6.771328318705830E-001 
 6.856501143828404E-001  6.942745311204350E-001  7.030074296660295E-001  7.118501745527904E-001 
 7.208041474775941E-001  7.298707475169303E-001  7.390513913454980E-001  7.483475134575752E-001 
 7.577605663911563E-001  7.672920209549107E-001  7.769433664580081E-001  7.867161109428170E-001 
 7.966117814205470E-001  8.066319241098446E-001  8.167781046783884E-001  8.270519084875376E-001 
 8.374549408400367E-001  8.479888272308573E-001  8.586552136011809E-001  8.694557665955758E-001 
 8.803921738224243E-001  8.914661441176028E-001  9.026794078115017E-001  9.140337169993881E-001 
 9.255308458151701E-001  9.371725907086197E-001  9.489607707260581E-001  9.608972277945982E-001 
 9.729838270099435E-001  9.852224569278084E-001  9.976150298590206E-001  1.010163482168310E+000 
 1.022869774576882E+000  1.035735892468778E+000  1.048763846201092E+000  1.061955671418102E+000 
 1.075313429369336E+000  1.088839207231651E+000  1.102535118435358E+000  1.116403302994444E+000 
 1.130445927840965E+000  1.144665187163619E+000  1.159063302750607E+000  1.173642524336785E+000 
 1.188405129955182E+000  1.203353426292966E+000  1.218489749051847E+000  1.233816463313055E+000 
 1.249335963906876E+000  1.265050675786850E+000  1.280963054408683E+000  1.297075586113904E+000 
 1.313390788518377E+000  1.329911210905673E+000  1.346639434625395E+000  1.363578073496539E+000 
 1.380729774215886E+000  1.398097216771570E+000  1.415683114861829E+000  1.433490216319012E+000 
 1.451521303538956E+000  1.469779193915718E+000  1.488266740281818E+000  1.506986831353992E+000 
 1.525942392184552E+000  1.545136384618446E+000  1.564571807756039E+000  1.584251698421741E+000 
 1.604179131638508E+000  1.624357221108318E+000  1.644789119698711E+000  1.665478019935402E+000 
 1.686427154501150E+000  1.707639796740855E+000  1.729119261173017E+000  1.750868904007661E+000 
 1.772892123670724E+000  1.795192361335088E+000  1.817773101458260E+000  1.840637872326820E+000 
 1.863790246607741E+000  1.887233841906602E+000  1.910972321332868E+000  1.935009394072249E+000 
 1.959348815966258E+000  1.983994390099091E+000  2.008949967391842E+000  2.034219447204237E+000 
 2.059806777943914E+000  2.085715957683350E+000  2.111951034784600E+000  2.138516108531830E+000 
 2.165415329771862E+000  2.192652901562746E+000  2.220233079830483E+000  2.248160174034047E+000 
 2.276438547838716E+000  2.305072619797936E+000  2.334066864043710E+000  2.363425810985682E+000 
 2.393154048019053E+000  2.423256220241332E+000  2.453737031178177E+000  2.484601243518314E+000 
 2.515853679857707E+000  2.547499223453127E+000  2.579542818985134E+000  2.611989473330728E+000 
 2.644844256345669E+000  2.678112301656636E+000  2.711798807463404E+000  2.745909037351030E+000 
 2.780448321112338E+000  2.815422055580691E+000  2.850835705473244E+000  2.886694804244852E+000 
 2.923004954952645E+000  2.959771831131549E+000  2.997001177680775E+000  3.034698811761455E+000 
 3.072870623705620E+000  3.111522577936538E+000  3.150660713900700E+000  3.190291147011484E+000 
 3.230420069604680E+000  3.271053751906099E+000  3.312198543011258E+000  3.353860871877483E+000 
 3.396047248328427E+000  3.438764264071228E+000  3.482018593726517E+000  3.525816995871291E+000 
 3.570166314095001E+000  3.615073478068854E+000  3.660545504628574E+000  3.706589498870835E+000 
 3.753212655263403E+000  3.800422258769327E+000  3.848225685985209E+000  3.896630406293796E+000 
 3.945643983031129E+000  3.995274074668279E+000  4.045528436008044E+000  4.096414919396634E+000 
 4.147941475950593E+000  4.200116156799229E+000  4.252947114342561E+000  4.306442603525197E+000 
 4.360610983126167E+000  4.415460717064974E+000  4.471000375724155E+000  4.527238637288356E+000 
 4.584184289100372E+000  4.641846229034163E+000  4.700233466885143E+000  4.759355125778030E+000 
 4.819220443592296E+000  4.879838774405653E+000  4.941219589955629E+000  5.003372481119515E+000 
 5.066307159413025E+000  5.130033458507667E+000  5.194561335767335E+000  5.259900873804144E+000 
 5.326062282053825E+000  5.393055898371045E+000  5.460892190644634E+000  5.529581758433283E+000 
 5.599135334621717E+000  5.669563787097707E+000  5.740878120450256E+000  5.813089477689025E+000 
 5.886209141985502E+000  5.960248538436013E+000  6.035219235846863E+000  6.111132948542074E+000 
 6.188001538193680E+000  6.265837015675215E+000  6.344651542938406E+000  6.424457434913463E+000 
 6.505267161433397E+000  6.587093349182363E+000  6.669948783668684E+000  6.753846411222581E+000 
 6.838799341019026E+000  6.924820847126164E+000  7.011924370579310E+000  7.100123521481230E+000 
 7.189432081128707E+000  7.279864004165862E+000  7.371433420764680E+000  7.464154638832775E+000 
 7.558042146249129E+000  7.653110613127803E+000  7.749374894110141E+000  7.846850030685922E+000 
 7.945551253543525E+000  8.045493984949843E+000  8.146693841160008E+000  8.249166634857419E+000 
 8.352928377624599E+000  8.457995282444935E+000  8.564383766236077E+000  8.672110452415081E+000 
 8.781192173495807E+000  8.891645973719131E+000  9.003489111716029E+000  9.116739063204371E+000 